104
Lattice="11.45512985522207 0.0 0.0 5.727564927611035 9.92043345827187 0.0 0.0 0.0 31.691342951089922" Properties=species:S:1:pos:R:3:tags:I:1:forces:R:3 energy=-419.83551025390625 free_energy=-419.83551025390625 stress="0.006617605686187744 6.877817213535309e-07 -9.546056389808655e-08 6.877817213535309e-07 0.006671736016869545 1.5613622963428497e-06 -9.546056389808655e-08 1.5613622963428497e-06 0.006828744430094957" pbc="T T F"
Al       1.62172028       0.84672590       9.95556038        6      -0.00010445      -0.00049052      -0.00107262
Al       4.48676113       0.84678778       9.97034102        6      -0.00009264      -0.00043093      -0.00092712
Al       7.34676132       0.84589033       9.96876707        6      -0.00013017      -0.00046350      -0.00090845
Al      10.20991720       0.84523569       9.95655762        6      -0.00014951      -0.00050148      -0.00116209
Al       3.05227395       3.32728448       9.94457903        6      -0.00010419      -0.00043742      -0.00118874
Al       5.91593090       3.32820036       9.95368206        6      -0.00010527      -0.00041778      -0.00103232
Al       8.77788099       3.32792589       9.94363191        6      -0.00013796      -0.00036792      -0.00109032
Al      11.64196578       3.32819769       9.93686193        6      -0.00019516      -0.00039467      -0.00116450
Al       4.48083530       5.80812707       9.95863623        6      -0.00002855      -0.00024714      -0.00085136
Al       7.34691431       5.80944167       9.95965619        6      -0.00006227      -0.00026190      -0.00084415
Al      10.21072092       5.81054530       9.96071584        6      -0.00017828      -0.00034522      -0.00099911
Al      13.07258051       5.80908960       9.95972340        6      -0.00011023      -0.00036061      -0.00106455
Al       5.91449587       8.28712253       9.96654210        6      -0.00004289      -0.00038700      -0.00098976
Al       8.78188609       8.28867411       9.97869402        6      -0.00010214      -0.00037772      -0.00105784
Al      11.64271780       8.28679393       9.98617403        6      -0.00005608      -0.00029316      -0.00093979
Al      14.50240351       8.28590154       9.97756093        6      -0.00007844      -0.00029641      -0.00092403
Al       0.19232675       1.62488425      12.34065299        5       0.00021085      -0.00064487      -0.00103262
Al       3.05904289       1.62217319      12.35148862        5      -0.00141961       0.00065814       0.00044886
Al       5.92153578       1.62304623      12.36658646        5      -0.00033650      -0.00111281      -0.00121158
Al       8.78289200       1.62306190      12.35250922        5       0.00033311      -0.00057850      -0.00107269
Al       1.62249188       4.10604019      12.33254001        5       0.00014500      -0.00246975       0.00142520
Al       4.48817727       4.10259671      12.34114749        5      -0.00044904      -0.00057172       0.00052054
Al       7.35668863       4.10431282      12.34407784        5      -0.00051668      -0.00041126      -0.00008558
Al      10.21718186       4.10412122      12.33991706        5      -0.00072350      -0.00109571      -0.00203195
Al       3.05456375       6.58874397      12.35880711        5      -0.00093770      -0.00126891       0.00076194
Al       5.92439287       6.59034711      12.35317159        5      -0.00040269      -0.00241131       0.00107355
Al       8.79239726       6.58996561      12.36282483        5      -0.00057895      -0.00131471       0.00214148
Al      11.64947778       6.58917848      12.36538668        5       0.00035227      -0.00092470       0.00266047
Al       4.48714592       9.06681406      12.35999498        5      -0.00026667       0.00071087      -0.00147085
Al       7.35593071       9.06628045      12.36093843        5      -0.00001457       0.00102326      -0.00009756
Al      10.22134112       9.06693803      12.38259872        5       0.00025896       0.00030125       0.00040544
Al      13.07901298       9.06756246      12.38332896        5      -0.00107145      -0.00100586       0.00045804
Al       0.17931760      -0.05659686      14.65247442        4      -0.00013814      -0.00038554       0.00016603
Al       3.04326322      -0.06529911      14.67134329        4       0.00031213       0.00009160       0.00075018
Al       5.90237784      -0.06469079      14.70889780        4       0.00022229      -0.00009469      -0.00059613
Al       8.76705588      -0.06431939      14.67470427        4       0.00002240       0.00001517       0.00046175
Al       1.60299963       2.41032524      14.63738673        4       0.00032957       0.00010423       0.00060151
Al       4.46493015       2.40713656      14.65427672        4       0.00026749      -0.00003872       0.00040699
Al       7.34288484       2.41179236      14.65449303        4      -0.00026846      -0.00026354       0.00038571
Al      10.20141500       2.40910715      14.64124454        4       0.00007446       0.00024353       0.00054944
Al       3.02632411       4.88923221      14.63115664        4       0.00036978      -0.00035674       0.00021761
Al       5.90413630       4.89079432      14.62541614        4      -0.00010557      -0.00041893       0.00094493
Al       8.78010077       4.89859819      14.64152520        4      -0.00064279      -0.00099952       0.00007242
Al      11.62945666       4.88984276      14.63264027        4      -0.00001602       0.00014843       0.00235612
Al       4.46768862       7.38472998      14.64707362        4      -0.00010684      -0.00110133      -0.00002502
Al       7.34839844       7.38774983      14.66039735        4      -0.00036512      -0.00095578      -0.00048508
Al      10.21246864       7.38626470      14.69078863        4      -0.00021323      -0.00034265       0.00030537
Al      13.05056830       7.37421374      14.69067377        4       0.00044260      -0.00010967      -0.00339055
Al       1.55951476       0.70918342      16.98209031        3       0.00090323       0.00047632       0.00003384
Al       4.42824094       0.68249432      17.03005536        3      -0.00018629      -0.00007248       0.00038812
Al       7.29303271       0.69992304      17.02363866        3       0.00066541      -0.00052820      -0.00014353
Al      10.16586551       0.71583524      16.98735293        3      -0.00218046      -0.00026421      -0.00000933
Al       2.97445274       3.16695225      16.96735500        3       0.00037478      -0.00043082       0.00005245
Al       5.85614166       3.15990549      16.95445934        3      -0.00051825      -0.00001107      -0.00009279
Al       8.73474146       3.17206332      16.96977509        3       0.00010591      -0.00034157       0.00031584
Al      11.58342587       3.18453386      16.96758029        3       0.00008042      -0.00000563       0.00053181
Al       4.40252026       5.65341110      16.91948891        3       0.00574546      -0.00004274       0.00253177
Al       7.29470591       5.66072353      16.93156791        3      -0.00008467      -0.00024174      -0.00021726
Al      10.15576926       5.66496806      16.97739893        3       0.00399053      -0.00051012       0.00110504
Al      13.00105598       5.64626217      16.96803221        3      -0.00102080       0.00014887       0.00049550
Al       5.85979321       8.15978596      16.94977527        3       0.00002702      -0.00039944       0.00030803
Al       8.73813537       8.15535877      17.01436451        3       0.00177531       0.00095842      -0.00043999
Al      11.58632892       8.15102692      17.07026855        3      -0.00000443      -0.00008690       0.00043850
Al      14.43264426       8.14584952      16.98483428        3       0.00096189       0.00189463      -0.00003596
Al       0.07766100       1.52739850      19.32379176        2       0.00159431      -0.00007792       0.00418456
Al       2.93622422       1.48165295      19.30416657        2      -0.00020239       0.00099222       0.00850343
Al       5.80429363       1.47785072      19.32280827        2      -0.00263476      -0.00098045      -0.00064405
Al       8.67980662       1.48076142      19.35367421        2       0.00162532       0.00206277      -0.00199098
Al       1.48617430       3.94515256      19.31648817        2       0.00040228       0.00102386      -0.00067994
Al       4.35881561       3.97133146      19.22224533        2       0.00149679      -0.00021711       0.00045162
Al       7.24994210       3.97171921      19.20264394        2      -0.00086313       0.00050703       0.00376523
Al      10.11922739       3.95969001      19.28716841        2       0.00256764       0.00002281      -0.00677944
Al       2.91955187       6.45198781      19.22242089        2       0.00183777       0.00003384       0.00249259
Al       5.80555619       6.45843372      19.17962835        2       0.00119409      -0.00103716       0.00226389
Al       8.69143491       6.44732096      19.23145653        2       0.00047215       0.00318982      -0.00333979
Al      11.52551693       6.43162995      19.33986271        2      -0.00135321      -0.00194054      -0.00142852
Al       4.39174240       8.96076900      19.24524065        2      -0.00061256      -0.00076721       0.00142599
Al       7.24532702       8.98296587      19.25527096        2       0.00170205      -0.00281724       0.00364559
Al      10.12404626       8.92813690      19.52037726        2      -0.00031731       0.00053326      -0.00159852
Al      12.98785595       8.96267096      19.39552612        2       0.00095306      -0.00134013       0.00246824
Al      -0.10861726      -0.07255057      21.63567340        1       0.00154225      -0.00663993       0.00467029
Al       2.62458718      -0.23227716      21.99195917        1      -0.00189855       0.00122822      -0.00005163
Al       5.63532700      -0.14194165      22.14110076        1       0.00163747       0.00234051      -0.00299621
Al       8.55851649      -0.33391394      22.05374472        1       0.00271838       0.00392022      -0.00185729
Al       1.45890000       2.38128046      22.02736824        1      -0.00158697      -0.00180471       0.00049127
Al       4.26604846       2.34333057      21.60662403        1       0.00482255      -0.00039408      -0.00322472
Al       7.12729816       2.30177441      21.62113904        1      -0.00375506       0.00096211      -0.00371895
Al       9.90329161       2.29456742      21.85803194        1      -0.00102341      -0.00059833       0.00211804
Al       2.87761360       4.82461276      21.54815530        1       0.00358580       0.00053762      -0.00619141
Al       5.73892647       4.77601184      21.50638728        1       0.00143925       0.00145185       0.00219803
Al       8.57256773       4.76951894      21.54763454        1      -0.00409637       0.00325254       0.00047802
Al      11.47495192       4.91182816      22.06608209        1      -0.00197758      -0.00158164       0.00003587
Al       4.30887448       7.26044935      21.47191127        1      -0.00020876       0.00215385       0.00476751
Al       7.07694348       7.24946307      21.52303821        1      -0.00023224      -0.00191274       0.00062045
Al       9.81629236       7.23734303      21.89008274        1       0.00094691       0.00281385      -0.00125278
Al      12.82678614       7.30582581      21.64189471        1      -0.00228189      -0.00198589      -0.00092544
C        4.48993607       5.72082120      24.80436846        0      -0.00452164       0.00506340       0.00046089
N        4.95245334       4.47114873      24.88841851        0       0.00454224       0.00569761       0.00070342
C        6.31004806       4.63852745      24.97459904        0      -0.00230772       0.00806883       0.00144039
N        6.71847131       5.91402476      24.92515754        0      -0.00519517      -0.00004811      -0.00349815
N        5.53388263       6.59556624      24.85504247        0      -0.00452812       0.00050423      -0.00301214
H        3.45996751       6.02705619      24.63843650        0       0.00211565      -0.00324624       0.00160702
H        7.02005082       3.81254104      25.00661502        0       0.00127126       0.00224109       0.00323618
H        5.51763676       7.54414212      24.48286328        0      -0.00259663      -0.00009849      -0.00349304