8
Lattice="11.45512985522207 0.0 0.0 5.727564927611035 9.92043345827187 0.0 0.0 0.0 31.691342951089922" Properties=species:S:1:pos:R:3:tags:I:1:forces:R:3 energy=-419.83551025390625 free_energy=-419.83551025390625 stress="0.006617605686187744 6.877817213535309e-07 -9.546056389808655e-08 6.877817213535309e-07 0.006671736016869545 1.5613622963428497e-06 -9.546056389808655e-08 1.5613622963428497e-06 0.006828744430094957" pbc="T T F"
C        4.48993607       5.72082120      24.80436846        0      -0.00452164       0.00506340       0.00046089
N        4.95245334       4.47114873      24.88841851        0       0.00454224       0.00569761       0.00070342
C        6.31004806       4.63852745      24.97459904        0      -0.00230772       0.00806883       0.00144039
N        6.71847131       5.91402476      24.92515754        0      -0.00519517      -0.00004811      -0.00349815
N        5.53388263       6.59556624      24.85504247        0      -0.00452812       0.00050423      -0.00301214
H        3.45996751       6.02705619      24.63843650        0       0.00211565      -0.00324624       0.00160702
H        7.02005082       3.81254104      25.00661502        0       0.00127126       0.00224109       0.00323618
H        5.51763676       7.54414212      24.48286328        0      -0.00259663      -0.00009849      -0.00349304