 DBCSR| CPU Multiplication driver                                           XSMM (U)
 DBCSR| Multrec recursion limit                                              512 (U)
 DBCSR| Multiplication stack size                                           1000 (D)
 DBCSR| Maximum elements for images                                    UNLIMITED (U)
 DBCSR| Multiplicative factor virtual images                                   1 (U)
 DBCSR| Use multiplication densification                                       T (D)
 DBCSR| Multiplication size stacks                                             3 (U)
 DBCSR| Use memory pool for CPU allocation                                     F (U)
 DBCSR| Number of 3D layers                                               SINGLE (U)
 DBCSR| Use MPI memory allocation                                              F (U)
 DBCSR| Use RMA algorithm                                                      F (U)
 DBCSR| Use Communication thread                                               T (U)
 DBCSR| Communication thread load                                             87 (D)
 DBCSR| MPI: My process id                                                     0
 DBCSR| MPI: Number of processes                                              48
 DBCSR| OMP: Current number of threads                                         1
 DBCSR| OMP: Max number of threads                                             1
 DBCSR| Split modifier for TAS multiplication algorithm                  1.0E+00 (U)


  **** **** ******  **  PROGRAM STARTED AT               2024-11-01 23:31:27.842
 ***** ** ***  *** **   PROGRAM STARTED ON                          3c286c8eca61
 **    ****   ******    PROGRAM STARTED BY                             <unknown>
 ***** **    ** ** **   PROGRAM PROCESS ID                                   587
  **** **  *******  **  PROGRAM STARTED IN                                  /mnt

 CP2K| version string:                                       CP2K version 2024.3
 CP2K| source code revision number:                                  git:6712648
 CP2K| cp2kflags: omp libint fftw3 libxc libgrpp pexsi elpa parallel scalapack c
 CP2K|            osma quip xsmm plumed2 spglib libdftd4 sirius libvori libbqb l
 CP2K|            libtorch libvdwxc hdf5
 CP2K| is freely available from                            https://www.cp2k.org/
 CP2K| Program compiled at                          Mon Sep  9 14:39:12 UTC 2024
 CP2K| Program compiled on                                          5c005b387e2b
 CP2K| Program compiled for                                                local
 CP2K| Data directory path                                        /opt/cp2k/data
 CP2K| Input file name                                    Al111_active_space.inp

 GLOBAL| Force Environment number                                              1
 GLOBAL| Basis set file name                                        BASIS_MOLOPT
 GLOBAL| Potential file name                                           POTENTIAL
 GLOBAL| MM Potential file name                                     MM_POTENTIAL
 GLOBAL| Coordinate file name              al_slab_with_triazole_4x4x6_v10.0.xyz
 GLOBAL| Method name                                                        CP2K
 GLOBAL| Project name                           Al111_4x4_active_space_adsorbate
 GLOBAL| Run type                                                         ENERGY
 GLOBAL| FFT library                                                       FFTW3
 GLOBAL| Diagonalization library                                            ELPA
 GLOBAL| DGEMM library                                                      BLAS
 GLOBAL| Minimum number of eigenvectors for ELPA usage                        16
 GLOBAL| Orthonormality check for eigenvectors                          DISABLED
 GLOBAL| Matrix multiplication library                                     COSMA
 GLOBAL| All-to-all communication in single precision                          F
 GLOBAL| FFTs using library dependent lengths                                  F
 GLOBAL| Grid backend                                                       AUTO
 GLOBAL| Global print level                                               MEDIUM
 GLOBAL| MPI I/O enabled                                                       T
 GLOBAL| Total number of message passing processes                            48
 GLOBAL| Number of threads for this process                                    1
 GLOBAL| This output is from process                                           0
 GLOBAL| Stack size for threads created by OpenMP (OMP_STACKSIZE)            16M
 GLOBAL| CPU model name                                  AMD EPYC 7R13 Processor
 GLOBAL| CPUID                                                              1002
 GLOBAL| Compiled for CPUID                                                    0

 *** HINT in environment.F:921 :: The compiler target flags (generic) used ***
 *** to build this binary cannot exploit all extensions of this CPU model  ***
 *** (x86_avx2). Consider compiler target flags as part of FCFLAGS and     ***
 *** CFLAGS (ARCH file).                                                   ***


 MEMORY| system memory details [Kb]
 MEMORY|                        rank 0           min           max       average
 MEMORY| MemTotal            387819248     387819248     387819248     387819248
 MEMORY| MemFree             376536952     376536952     376536952     376536952
 MEMORY| Buffers                128572        128572        128572        128572
 MEMORY| Cached                1562980       1562980       1562980       1562980
 MEMORY| Slab                   709484        709484        709484        709484
 MEMORY| SReclaimable           261848        261848        261848        261848
 MEMORY| MemLikelyFree       378490352     378490352     378490352     378490352


 *** Fundamental physical constants (SI units) ***

 *** Literature: B. J. Mohr and B. N. Taylor,
 ***             CODATA recommended values of the fundamental physical
 ***             constants: 2006, Web Version 5.1
 ***             http://physics.nist.gov/constants

 Speed of light in vacuum [m/s]                             2.99792458000000E+08
 Magnetic constant or permeability of vacuum [N/A**2]       1.25663706143592E-06
 Electric constant or permittivity of vacuum [F/m]          8.85418781762039E-12
 Planck constant (h) [J*s]                                  6.62606896000000E-34
 Planck constant (h-bar) [J*s]                              1.05457162825177E-34
 Elementary charge [C]                                      1.60217648700000E-19
 Electron mass [kg]                                         9.10938215000000E-31
 Electron g factor [ ]                                     -2.00231930436220E+00
 Proton mass [kg]                                           1.67262163700000E-27
 Fine-structure constant                                    7.29735253760000E-03
 Rydberg constant [1/m]                                     1.09737315685270E+07
 Avogadro constant [1/mol]                                  6.02214179000000E+23
 Boltzmann constant [J/K]                                   1.38065040000000E-23
 Atomic mass unit [kg]                                      1.66053878200000E-27
 Bohr radius [m]                                            5.29177208590000E-11

 *** Conversion factors ***

 [u] -> [a.u.]                                              1.82288848426455E+03
 [Angstrom] -> [Bohr] = [a.u.]                              1.88972613288564E+00
 [a.u.] = [Bohr] -> [Angstrom]                              5.29177208590000E-01
 [a.u.] -> [s]                                              2.41888432650478E-17
 [a.u.] -> [fs]                                             2.41888432650478E-02
 [a.u.] -> [J]                                              4.35974393937059E-18
 [a.u.] -> [N]                                              8.23872205491840E-08
 [a.u.] -> [K]                                              3.15774647902944E+05
 [a.u.] -> [kJ/mol]                                         2.62549961709828E+03
 [a.u.] -> [kcal/mol]                                       6.27509468713739E+02
 [a.u.] -> [Pa]                                             2.94210107994716E+13
 [a.u.] -> [bar]                                            2.94210107994716E+08
 [a.u.] -> [atm]                                            2.90362800883016E+08
 [a.u.] -> [eV]                                             2.72113838565563E+01
 [a.u.] -> [Hz]                                             6.57968392072181E+15
 [a.u.] -> [1/cm] (wave numbers)                            2.19474631370540E+05
 [a.u./Bohr**2] -> [1/cm]                                   5.14048714338585E+03
 

 CELL_TOP| Volume [angstrom^3]:                                      4545.594139
 CELL_TOP| Vector a [angstrom    11.455     0.000     0.000   |a| =    11.455130
 CELL_TOP| Vector b [angstrom     5.728     9.920     0.000   |b| =    11.455130
 CELL_TOP| Vector c [angstrom     0.000     0.000    40.000   |c| =    40.000000
 CELL_TOP| Angle (b,c), alpha [degree]:                                90.000000
 CELL_TOP| Angle (a,c), beta  [degree]:                                90.000000
 CELL_TOP| Angle (a,b), gamma [degree]:                                60.000000
 CELL_TOP| Numerically orthorhombic:                                          NO
 CELL_TOP| Periodicity                                                       XYZ

 GENERATE|  Preliminary Number of Bonds generated:                             0
 GENERATE|  Achieved consistency in connectivity generation.

 CELL| Volume [angstrom^3]:                                          4545.594139
 CELL| Vector a [angstrom]:      11.455     0.000     0.000   |a| =    11.455130
 CELL| Vector b [angstrom]:       5.728     9.920     0.000   |b| =    11.455130
 CELL| Vector c [angstrom]:       0.000     0.000    40.000   |c| =    40.000000
 CELL| Angle (b,c), alpha [degree]:                                    90.000000
 CELL| Angle (a,c), beta  [degree]:                                    90.000000
 CELL| Angle (a,b), gamma [degree]:                                    60.000000
 CELL| Numerically orthorhombic:                                              NO
 CELL| Periodicity                                                           XYZ

 CELL_REF| Volume [angstrom^3]:                                      4545.594139
 CELL_REF| Vector a [angstrom    11.455     0.000     0.000   |a| =    11.455130
 CELL_REF| Vector b [angstrom     5.728     9.920     0.000   |b| =    11.455130
 CELL_REF| Vector c [angstrom     0.000     0.000    40.000   |c| =    40.000000
 CELL_REF| Angle (b,c), alpha [degree]:                                90.000000
 CELL_REF| Angle (a,c), beta  [degree]:                                90.000000
 CELL_REF| Angle (a,b), gamma [degree]:                                60.000000
 CELL_REF| Numerically orthorhombic:                                          NO
 CELL_REF| Periodicity                                                       XYZ

 *******************************************************************************
 *******************************************************************************
 **                                                                           **
 **     #####                         ##              ##                      **
 **    ##   ##            ##          ##              ##                      **
 **   ##     ##                       ##            ######                    **
 **   ##     ##  ##   ##  ##   #####  ##  ##   ####   ##    #####    #####    **
 **   ##     ##  ##   ##  ##  ##      ## ##   ##      ##   ##   ##  ##   ##   **
 **   ##  ## ##  ##   ##  ##  ##      ####     ###    ##   ######   ######    **
 **    ##  ###   ##   ##  ##  ##      ## ##      ##   ##   ##       ##        **
 **     #######   #####   ##   #####  ##  ##  ####    ##    #####   ##        **
 **           ##                                                    ##        **
 **                                                                           **
 **                                                ... make the atoms dance   **
 **                                                                           **
 **            Copyright (C) by CP2K developers group (2000-2024)             **
 **                      J. Chem. Phys. 152, 194103 (2020)                    **
 **                                                                           **
 *******************************************************************************

 *** WARNING in qs_environment.F:1540 :: More added MOs requested than     ***
 *** available. The full set of unoccupied MOs will be used. Use           ***
 *** 'ADDED_MOS -1' to always use all available MOs and to get rid of this ***
 *** warning.                                                              ***


 DFT| Spin restricted Kohn-Sham (RKS) calculation                            RKS
 DFT| Multiplicity                                                             1
 DFT| Number of spin states                                                    1
 DFT| Charge                                                                   0
 DFT| Self-interaction correction (SIC)                                       NO
 DFT| Cutoffs: density                                              1.000000E-10
 DFT|          gradient                                             1.000000E-10
 DFT|          tau                                                  1.000000E-10
 DFT|          cutoff_smoothing_range                               0.000000E+00
 DFT| XC density smoothing                                                  NONE
 DFT| XC derivatives                                                          PW

 FUNCTIONAL| PBE:
 FUNCTIONAL| J.P.Perdew, K.Burke, M.Ernzerhof, Phys. Rev. Letter, vol. 77, n 18,
 FUNCTIONAL|  pp. 3865-3868, (1996) {spin unpolarized}                          

 vdW POTENTIAL|                                                   Pair Potential
 vdW POTENTIAL|          DFT-D3 (Version 3.1)
 vdW POTENTIAL|          Potential Form: S. Grimme et al, JCP 132: 154104 (2010)
 vdW POTENTIAL|          Zero Damping
 vdW POTENTIAL|          Cutoff Radius [Bohr]:                             20.00
 vdW POTENTIAL|          s6 Scaling Factor:                               1.0000
 vdW POTENTIAL|          sr6 Scaling Factor:                              1.2170
 vdW POTENTIAL|          s8 Scaling Factor:                               0.7220
 vdW POTENTIAL|          Cutoff for CN calculation:                   0.1000E-05

 QS| Method:                                                                 GPW
 QS| Density plane wave grid type                        NON-SPHERICAL FULLSPACE
 QS| Number of grid levels:                                                    5
 QS| Density cutoff [a.u.]:                                                250.0
 QS| Multi grid cutoff [a.u.]: 1) grid level                               250.0
 QS|                           2) grid level                                83.3
 QS|                           3) grid level                                27.8
 QS|                           4) grid level                                 9.3
 QS|                           5) grid level                                 3.1
 QS| Grid level progression factor:                                          3.0
 QS| Relative density cutoff [a.u.]:                                        30.0
 QS| Interaction thresholds: eps_pgf_orb:                                1.0E-05
 QS|                         eps_filter_matrix:                          0.0E+00
 QS|                         eps_core_charge:                            1.0E-12
 QS|                         eps_rho_gspace:                             1.0E-10
 QS|                         eps_rho_rspace:                             1.0E-10
 QS|                         eps_gvg_rspace:                             1.0E-05
 QS|                         eps_ppl:                                    1.0E-02
 QS|                         eps_ppnl:                                   1.0E-07


 ATOMIC KIND INFORMATION

  1. Atomic kind: C                                     Number of atoms:       2

     Orbital Basis Set                                           DZVP-MOLOPT-GTH

       Number of orbital shell sets:                                           1
       Number of orbital shells:                                               5
       Number of primitive Cartesian functions:                                7
       Number of Cartesian basis functions:                                   14
       Number of spherical basis functions:                                   13
       Norm type:                                                              2

       Normalised Cartesian orbitals:

                        Set   Shell   Orbital            Exponent    Coefficient

                          1       1    2s                6.132625      -0.263661
                                                         2.625196      -0.231112
                                                         1.045457       0.042712
                                                         0.478316       0.306085
                                                         0.178617       0.065483
                                                         0.075145       0.000568
                                                         0.030287       0.000417

                          1       2    3s                6.132625       0.131937
                                                         2.625196       0.414269
                                                         1.045457      -0.593590
                                                         0.478316       0.644922
                                                         0.178617       0.069203
                                                         0.075145      -0.145101
                                                         0.030287       0.008247

                          1       3    3px               6.132625       0.562677
                                                         2.625196       0.633910
                                                         1.045457       0.379157
                                                         0.478316       0.235193
                                                         0.178617       0.052379
                                                         0.075145       0.003677
                                                         0.030287       0.000105
                          1       3    3py               6.132625       0.562677
                                                         2.625196       0.633910
                                                         1.045457       0.379157
                                                         0.478316       0.235193
                                                         0.178617       0.052379
                                                         0.075145       0.003677
                                                         0.030287       0.000105
                          1       3    3pz               6.132625       0.562677
                                                         2.625196       0.633910
                                                         1.045457       0.379157
                                                         0.478316       0.235193
                                                         0.178617       0.052379
                                                         0.075145       0.003677
                                                         0.030287       0.000105

                          1       4    4px               6.132625      -0.472364
                                                         2.625196      -0.221326
                                                         1.045457      -0.481781
                                                         0.478316       0.135466
                                                         0.178617       0.072281
                                                         0.075145       0.024920
                                                         0.030287       0.002706
                          1       4    4py               6.132625      -0.472364
                                                         2.625196      -0.221326
                                                         1.045457      -0.481781
                                                         0.478316       0.135466
                                                         0.178617       0.072281
                                                         0.075145       0.024920
                                                         0.030287       0.002706
                          1       4    4pz               6.132625      -0.472364
                                                         2.625196      -0.221326
                                                         1.045457      -0.481781
                                                         0.478316       0.135466
                                                         0.178617       0.072281
                                                         0.075145       0.024920
                                                         0.030287       0.002706

                          1       5    4dx2              6.132625       0.874783
                                                         2.625196       0.375772
                                                         1.045457       0.653959
                                                         0.478316       0.191007
                                                         0.178617       0.018656
                                                         0.075145       0.003649
                                                         0.030287      -0.000011
                          1       5    4dxy              6.132625       1.515169
                                                         2.625196       0.650856
                                                         1.045457       1.132690
                                                         0.478316       0.330834
                                                         0.178617       0.032314
                                                         0.075145       0.006321
                                                         0.030287      -0.000019
                          1       5    4dxz              6.132625       1.515169
                                                         2.625196       0.650856
                                                         1.045457       1.132690
                                                         0.478316       0.330834
                                                         0.178617       0.032314
                                                         0.075145       0.006321
                                                         0.030287      -0.000019
                          1       5    4dy2              6.132625       0.874783
                                                         2.625196       0.375772
                                                         1.045457       0.653959
                                                         0.478316       0.191007
                                                         0.178617       0.018656
                                                         0.075145       0.003649
                                                         0.030287      -0.000011
                          1       5    4dyz              6.132625       1.515169
                                                         2.625196       0.650856
                                                         1.045457       1.132690
                                                         0.478316       0.330834
                                                         0.178617       0.032314
                                                         0.075145       0.006321
                                                         0.030287      -0.000019
                          1       5    4dz2              6.132625       0.874783
                                                         2.625196       0.375772
                                                         1.045457       0.653959
                                                         0.478316       0.191007
                                                         0.178617       0.018656
                                                         0.075145       0.003649
                                                         0.030287      -0.000011

       Atomic covalent radius [Angstrom]:                                  0.770

       Atomic van der Waals radius [Angstrom]:                             1.700

     GTH Potential information for                                    GTH-PBE-q4

       Description:                       Goedecker-Teter-Hutter pseudopotential
                                           Goedecker et al., PRB 54, 1703 (1996)
                                          Hartwigsen et al., PRB 58, 3641 (1998)
                                                      Krack, TCA 114, 145 (2005)

       Gaussian exponent of the core charge distribution:               4.364419
       Electronic configuration (s p d ...):                               2   2

       Parameters of the local part of the GTH pseudopotential:

                          rloc        C1          C2          C3          C4
                        0.338471   -8.803674    1.339211

       Parameters of the non-local part of the GTH pseudopotential:

                   l      r(l)      h(i,j,l)

                   0    0.302576    9.622487
                   1    0.291507

  2. Atomic kind: N                                     Number of atoms:       3

     Orbital Basis Set                                           DZVP-MOLOPT-GTH

       Number of orbital shell sets:                                           1
       Number of orbital shells:                                               5
       Number of primitive Cartesian functions:                                7
       Number of Cartesian basis functions:                                   14
       Number of spherical basis functions:                                   13
       Norm type:                                                              2

       Normalised Cartesian orbitals:

                        Set   Shell   Orbital            Exponent    Coefficient

                          1       1    2s                9.042730      -0.237404
                                                         3.882225      -0.265910
                                                         1.512880       0.102064
                                                         0.586631       0.295369
                                                         0.222851       0.088647
                                                         0.084583       0.003860
                                                         0.039194       0.000722

                          1       2    3s                9.042730       0.259152
                                                         3.882225       0.251432
                                                         1.512880      -0.043896
                                                         0.586631      -0.328079
                                                         0.222851       0.175857
                                                         0.084583       0.069169
                                                         0.039194       0.004207

                          1       3    3px               9.042730       0.822162
                                                         3.882225       0.990771
                                                         1.512880       0.665657
                                                         0.586631       0.321705
                                                         0.222851       0.063706
                                                         0.084583       0.004155
                                                         0.039194      -0.000005
                          1       3    3py               9.042730       0.822162
                                                         3.882225       0.990771
                                                         1.512880       0.665657
                                                         0.586631       0.321705
                                                         0.222851       0.063706
                                                         0.084583       0.004155
                                                         0.039194      -0.000005
                          1       3    3pz               9.042730       0.822162
                                                         3.882225       0.990771
                                                         1.512880       0.665657
                                                         0.586631       0.321705
                                                         0.222851       0.063706
                                                         0.084583       0.004155
                                                         0.039194      -0.000005

                          1       4    4px               9.042730      -0.251449
                                                         3.882225      -0.215479
                                                         1.512880      -0.200519
                                                         0.586631      -0.125283
                                                         0.222851       0.136219
                                                         0.084583       0.034362
                                                         0.039194       0.000879
                          1       4    4py               9.042730      -0.251449
                                                         3.882225      -0.215479
                                                         1.512880      -0.200519
                                                         0.586631      -0.125283
                                                         0.222851       0.136219
                                                         0.084583       0.034362
                                                         0.039194       0.000879
                          1       4    4pz               9.042730      -0.251449
                                                         3.882225      -0.215479
                                                         1.512880      -0.200519
                                                         0.586631      -0.125283
                                                         0.222851       0.136219
                                                         0.084583       0.034362
                                                         0.039194       0.000879

                          1       5    4dx2              9.042730       1.099742
                                                         3.882225       0.532064
                                                         1.512880       0.873643
                                                         0.586631       0.456348
                                                         0.222851       0.017840
                                                         0.084583      -0.000857
                                                         0.039194      -0.000086
                          1       5    4dxy              9.042730       1.904809
                                                         3.882225       0.921562
                                                         1.512880       1.513195
                                                         0.586631       0.790419
                                                         0.222851       0.030900
                                                         0.084583      -0.001484
                                                         0.039194      -0.000150
                          1       5    4dxz              9.042730       1.904809
                                                         3.882225       0.921562
                                                         1.512880       1.513195
                                                         0.586631       0.790419
                                                         0.222851       0.030900
                                                         0.084583      -0.001484
                                                         0.039194      -0.000150
                          1       5    4dy2              9.042730       1.099742
                                                         3.882225       0.532064
                                                         1.512880       0.873643
                                                         0.586631       0.456348
                                                         0.222851       0.017840
                                                         0.084583      -0.000857
                                                         0.039194      -0.000086
                          1       5    4dyz              9.042730       1.904809
                                                         3.882225       0.921562
                                                         1.512880       1.513195
                                                         0.586631       0.790419
                                                         0.222851       0.030900
                                                         0.084583      -0.001484
                                                         0.039194      -0.000150
                          1       5    4dz2              9.042730       1.099742
                                                         3.882225       0.532064
                                                         1.512880       0.873643
                                                         0.586631       0.456348
                                                         0.222851       0.017840
                                                         0.084583      -0.000857
                                                         0.039194      -0.000086

       Atomic covalent radius [Angstrom]:                                  0.750

       Atomic van der Waals radius [Angstrom]:                             1.550

     GTH Potential information for                                    GTH-PBE-q5

       Description:                       Goedecker-Teter-Hutter pseudopotential
                                           Goedecker et al., PRB 54, 1703 (1996)
                                          Hartwigsen et al., PRB 58, 3641 (1998)
                                                      Krack, TCA 114, 145 (2005)

       Gaussian exponent of the core charge distribution:               6.208322
       Electronic configuration (s p d ...):                               2   3

       Parameters of the local part of the GTH pseudopotential:

                          rloc        C1          C2          C3          C4
                        0.283791  -12.415226    1.868096

       Parameters of the non-local part of the GTH pseudopotential:

                   l      r(l)      h(i,j,l)

                   0    0.255405   13.630263
                   1    0.245495

  3. Atomic kind: H                                     Number of atoms:       3

     Orbital Basis Set                                           DZVP-MOLOPT-GTH

       Number of orbital shell sets:                                           1
       Number of orbital shells:                                               3
       Number of primitive Cartesian functions:                                7
       Number of Cartesian basis functions:                                    5
       Number of spherical basis functions:                                    5
       Norm type:                                                              2

       Normalised Cartesian orbitals:

                        Set   Shell   Orbital            Exponent    Coefficient

                          1       1    2s               11.478000       0.129129
                                                         3.700759       0.177012
                                                         1.446884       0.141285
                                                         0.716815       0.245670
                                                         0.247919       0.094768
                                                         0.066918       0.004062
                                                         0.021708      -0.000053

                          1       2    3s               11.478000      -0.079256
                                                         3.700759      -0.152992
                                                         1.446884       0.015066
                                                         0.716815      -0.331234
                                                         0.247919       0.210690
                                                         0.066918       0.058630
                                                         0.021708      -0.003429

                          1       3    3px              11.478000       0.325290
                                                         3.700759       0.187466
                                                         1.446884       0.443300
                                                         0.716815       0.267738
                                                         0.247919       0.088285
                                                         0.066918       0.019092
                                                         0.021708       0.000629
                          1       3    3py              11.478000       0.325290
                                                         3.700759       0.187466
                                                         1.446884       0.443300
                                                         0.716815       0.267738
                                                         0.247919       0.088285
                                                         0.066918       0.019092
                                                         0.021708       0.000629
                          1       3    3pz              11.478000       0.325290
                                                         3.700759       0.187466
                                                         1.446884       0.443300
                                                         0.716815       0.267738
                                                         0.247919       0.088285
                                                         0.066918       0.019092
                                                         0.021708       0.000629

       Atomic covalent radius [Angstrom]:                                  0.320

       Atomic van der Waals radius [Angstrom]:                             1.090

     GTH Potential information for                                    GTH-PBE-q1

       Description:                       Goedecker-Teter-Hutter pseudopotential
                                           Goedecker et al., PRB 54, 1703 (1996)
                                          Hartwigsen et al., PRB 58, 3641 (1998)
                                                      Krack, TCA 114, 145 (2005)

       Gaussian exponent of the core charge distribution:              12.500000
       Electronic configuration (s p d ...):                                   1

       Parameters of the local part of the GTH pseudopotential:

                          rloc        C1          C2          C3          C4
                        0.200000   -4.178900    0.724463


 MOLECULE KIND INFORMATION


 All atoms are their own molecule, skipping detailed information


 TOTAL NUMBERS AND MAXIMUM NUMBERS

  Total number of            - Atomic kinds:                                   3
                             - Atoms:                                          8
                             - Shell sets:                                     8
                             - Shells:                                        34
                             - Primitive Cartesian functions:                 56
                             - Cartesian basis functions:                     85
                             - Spherical basis functions:                     80

  Maximum angular momentum of- Orbital basis functions:                        2
                             - Local part of the GTH pseudopotential:          2
                             - Non-local part of the GTH pseudopotential:      0


 MODULE QUICKSTEP: ATOMIC COORDINATES IN ANGSTROM

   Atom Kind Element         X             Y             Z       Z(eff)     Mass
      1    1 C     6      4.489936      5.720821     24.804368   4.0000  12.0107
      2    2 N     7      4.952453      4.471149     24.888419   5.0000  14.0067
      3    1 C     6      6.310048      4.638527     24.974599   4.0000  12.0107
      4    2 N     7      6.718471      5.914025     24.925158   5.0000  14.0067
      5    2 N     7      5.533883      6.595566     24.855042   5.0000  14.0067
      6    3 H     1      3.459968      6.027056     24.638437   1.0000   1.0079
      7    3 H     1      7.020051      3.812541     25.006615   1.0000   1.0079
      8    3 H     1      5.517637      7.544142     24.482863   1.0000   1.0079



 SCF PARAMETERS         Density guess:                                     MOPAC
                        --------------------------------------------------------
                        max_scf:                                             500
                        max_scf_history:                                       0
                        max_diis:                                              4
                        --------------------------------------------------------
                        eps_scf:                                        1.00E-06
                        eps_scf_history:                                0.00E+00
                        eps_diis:                                       1.00E-01
                        eps_eigval:                                     1.00E-05
                        --------------------------------------------------------
                        level_shift [a.u.]:                             0.000000
                        added MOs                                        67    0
                        --------------------------------------------------------
                        Mixing method:                            BROYDEN_MIXING
                                                charge density mixing in g-space
                        --------------------------------------------------------
                        Smear method:                                FERMI_DIRAC
                        Electronic temperature [K]:                       1000.0
                        Electronic temperature [a.u.]:                  3.17E-03
                        Accuracy threshold:                             1.00E-10
                        --------------------------------------------------------
                        Outer loop SCF in use 
                        No variables optimised in outer loop
                        eps_scf                                         1.00E-06
                        max_scf                                               50
                        No outer loop optimization
                        step_size                                       5.00E-01

 PW_GRID| Information for grid number                                          1
 PW_GRID| Grid distributed over                                    48 processors
 PW_GRID| Real space group dimensions                                    48    1
 PW_GRID| the grid is blocked:                                                NO
 PW_GRID| Cutoff [a.u.]                                                    250.0
 PW_GRID| spherical cutoff:                                                   NO
 PW_GRID|   Bounds   1            -80      79                Points:         160
 PW_GRID|   Bounds   2            -80      79                Points:         160
 PW_GRID|   Bounds   3           -270     269                Points:         540
 PW_GRID| Volume element (a.u.^3)  0.2219E-02     Volume (a.u.^3)     30675.1901
 PW_GRID| Grid span                                                    FULLSPACE
 PW_GRID|   Distribution                         Average         Max         Min
 PW_GRID|   G-Vectors                           288000.0      288000      288000
 PW_GRID|   G-Rays                                1800.0        1800        1800
 PW_GRID|   Real Space Points                   288000.0      345600      259200

 PW_GRID| Information for grid number                                          2
 PW_GRID| Number of the reference grid                                         1
 PW_GRID| Grid distributed over                                    48 processors
 PW_GRID| Real space group dimensions                                    48    1
 PW_GRID| the grid is blocked:                                                NO
 PW_GRID| Cutoff [a.u.]                                                     83.3
 PW_GRID| spherical cutoff:                                                   NO
 PW_GRID|   Bounds   1            -45      44                Points:          90
 PW_GRID|   Bounds   2            -45      44                Points:          90
 PW_GRID|   Bounds   3           -160     159                Points:         320
 PW_GRID| Volume element (a.u.^3)  0.1183E-01     Volume (a.u.^3)     30675.1901
 PW_GRID| Grid span                                                    FULLSPACE
 PW_GRID|   Distribution                         Average         Max         Min
 PW_GRID|   G-Vectors                            54000.0       56070       45990
 PW_GRID|   G-Rays                                 600.0         623         511
 PW_GRID|   Real Space Points                    54000.0       57600       28800

 PW_GRID| Information for grid number                                          3
 PW_GRID| Number of the reference grid                                         1
 PW_GRID| Grid distributed over                                    48 processors
 PW_GRID| Real space group dimensions                                    48    1
 PW_GRID| the grid is blocked:                                                NO
 PW_GRID| Cutoff [a.u.]                                                     27.8
 PW_GRID| spherical cutoff:                                                   NO
 PW_GRID|   Bounds   1            -27      26                Points:          54
 PW_GRID|   Bounds   2            -27      26                Points:          54
 PW_GRID|   Bounds   3            -90      89                Points:         180
 PW_GRID| Volume element (a.u.^3)  0.5844E-01     Volume (a.u.^3)     30675.1901
 PW_GRID| Grid span                                                    FULLSPACE
 PW_GRID|   Distribution                         Average         Max         Min
 PW_GRID|   G-Vectors                            10935.0       11448       10260
 PW_GRID|   G-Rays                                 202.5         212         190
 PW_GRID|   Real Space Points                    10935.0       19440        9720

 PW_GRID| Information for grid number                                          4
 PW_GRID| Number of the reference grid                                         1
 PW_GRID| Grid distributed over                                    48 processors
 PW_GRID| Real space group dimensions                                     6    8
 PW_GRID| the grid is blocked:                                                NO
 PW_GRID| Cutoff [a.u.]                                                      9.3
 PW_GRID| spherical cutoff:                                                   NO
 PW_GRID|   Bounds   1            -15      14                Points:          30
 PW_GRID|   Bounds   2            -15      14                Points:          30
 PW_GRID|   Bounds   3            -54      53                Points:         108
 PW_GRID| Volume element (a.u.^3)  0.3156         Volume (a.u.^3)     30675.1901
 PW_GRID| Grid span                                                    FULLSPACE
 PW_GRID|   Distribution                         Average         Max         Min
 PW_GRID|   G-Vectors                             2025.0        2340        1710
 PW_GRID|   G-Rays                                  67.5          78          57
 PW_GRID|   Real Space Points                     2025.0        2160        1620

 PW_GRID| Information for grid number                                          5
 PW_GRID| Number of the reference grid                                         1
 PW_GRID| Grid distributed over                                    48 processors
 PW_GRID| Real space group dimensions                                     6    8
 PW_GRID| the grid is blocked:                                                NO
 PW_GRID| Cutoff [a.u.]                                                      3.1
 PW_GRID| spherical cutoff:                                                   NO
 PW_GRID|   Bounds   1             -9       8                Points:          18
 PW_GRID|   Bounds   2             -9       8                Points:          18
 PW_GRID|   Bounds   3            -30      29                Points:          60
 PW_GRID| Volume element (a.u.^3)   1.578         Volume (a.u.^3)     30675.1901
 PW_GRID| Grid span                                                    FULLSPACE
 PW_GRID|   Distribution                         Average         Max         Min
 PW_GRID|   G-Vectors                              405.0         486         288
 PW_GRID|   G-Rays                                  22.5          27          16
 PW_GRID|   Real Space Points                      405.0         540         360

 POISSON| Solver                                                        PERIODIC
 POISSON| Periodicity                                                        XYZ

 RS_GRID| Information for grid number                                          1
 RS_GRID|   Bounds   1            -80      79                Points:         160
 RS_GRID|   Bounds   2            -80      79                Points:         160
 RS_GRID|   Bounds   3           -270     269                Points:         540
 RS_GRID| Real space distribution over                                 48 groups
 RS_GRID| Real space distribution along direction                              3
 RS_GRID| Border size                                                         40
 RS_GRID|   Distribution                         Average         Max         Min
 RS_GRID|   Planes                                  91.2          92          91

 RS_GRID| Information for grid number                                          2
 RS_GRID|   Bounds   1            -45      44                Points:          90
 RS_GRID|   Bounds   2            -45      44                Points:          90
 RS_GRID|   Bounds   3           -160     159                Points:         320
 RS_GRID| Real space distribution over                                 48 groups
 RS_GRID| Real space distribution along direction                              3
 RS_GRID| Border size                                                         40
 RS_GRID|   Distribution                         Average         Max         Min
 RS_GRID|   Planes                                  86.7          87          86

 RS_GRID| Information for grid number                                          3
 RS_GRID|   Bounds   1            -27      26                Points:          54
 RS_GRID|   Bounds   2            -27      26                Points:          54
 RS_GRID|   Bounds   3            -90      89                Points:         180
 RS_GRID| Real space fully replicated
 RS_GRID| Group size                                                           1

 RS_GRID| Information for grid number                                          4
 RS_GRID|   Bounds   1            -15      14                Points:          30
 RS_GRID|   Bounds   2            -15      14                Points:          30
 RS_GRID|   Bounds   3            -54      53                Points:         108
 RS_GRID| Real space fully replicated
 RS_GRID| Group size                                                           1

 RS_GRID| Information for grid number                                          5
 RS_GRID|   Bounds   1             -9       8                Points:          18
 RS_GRID|   Bounds   2             -9       8                Points:          18
 RS_GRID|   Bounds   3            -30      29                Points:          60
 RS_GRID| Real space fully replicated
 RS_GRID| Group size                                                           1

 Number of electrons:                                                         26
 Number of occupied orbitals:                                                 13
 Number of molecular orbitals:                                                80

 Number of orbital functions:                                                 80
 Number of independent orbital functions:                                     80

 Extrapolation method: initial_guess


 SCF WAVEFUNCTION OPTIMIZATION

  Step     Update method      Time    Convergence         Total energy    Change
  ------------------------------------------------------------------------------

 *** WARNING in fm/cp_fm_elpa.F:522 :: Setting real_kernel for ELPA failed ***

     1 NoMix/Diag. 0.10E+00    0.6     1.34024743       -41.9652688776 -4.20E+01

 *** WARNING in fm/cp_fm_elpa.F:522 :: Setting real_kernel for ELPA failed ***

     2 Broy./Diag. 0.10E+00    1.0     0.02310798       -44.5064116997 -2.54E+00

 *** WARNING in fm/cp_fm_elpa.F:522 :: Setting real_kernel for ELPA failed ***

     3 Broy./Diag. 0.10E+00    0.9     0.19078304       -43.7245493138  7.82E-01

 *** WARNING in fm/cp_fm_elpa.F:522 :: Setting real_kernel for ELPA failed ***

     4 Broy./Diag. 0.10E+00    0.9     0.00728605       -43.8272959078 -1.03E-01

 *** WARNING in fm/cp_fm_elpa.F:522 :: Setting real_kernel for ELPA failed ***

     5 Broy./Diag. 0.10E+00    0.8     0.03451100       -43.3646441393  4.63E-01

 *** WARNING in fm/cp_fm_elpa.F:522 :: Setting real_kernel for ELPA failed ***

     6 Broy./Diag. 0.10E+00    0.8     0.00153314       -43.1373040544  2.27E-01

 *** WARNING in fm/cp_fm_elpa.F:522 :: Setting real_kernel for ELPA failed ***

     7 Broy./Diag. 0.10E+00    0.8     0.01888099       -43.0713669810  6.59E-02

 *** WARNING in fm/cp_fm_elpa.F:522 :: Setting real_kernel for ELPA failed ***

     8 Broy./Diag. 0.10E+00    0.9     0.00153479       -43.0427765222  2.86E-02

 *** WARNING in fm/cp_fm_elpa.F:522 :: Setting real_kernel for ELPA failed ***

     9 Broy./Diag. 0.10E+00    0.9     0.00755054       -43.0321107946  1.07E-02

 *** WARNING in fm/cp_fm_elpa.F:522 :: Setting real_kernel for ELPA failed ***

    10 Broy./Diag. 0.10E+00    0.9     0.00129996       -43.0223707454  9.74E-03

 *** WARNING in fm/cp_fm_elpa.F:522 :: Setting real_kernel for ELPA failed ***

    11 Broy./Diag. 0.10E+00    0.8     0.00439739       -43.0049147679  1.75E-02

 *** WARNING in fm/cp_fm_elpa.F:522 :: Setting real_kernel for ELPA failed ***

    12 Broy./Diag. 0.10E+00    0.9     0.00028073       -42.9941005211  1.08E-02

 *** WARNING in fm/cp_fm_elpa.F:522 :: Setting real_kernel for ELPA failed ***

    13 Broy./Diag. 0.10E+00    0.8     0.00175323       -42.9841420568  9.96E-03

 *** WARNING in fm/cp_fm_elpa.F:522 :: Setting real_kernel for ELPA failed ***

    14 Broy./Diag. 0.10E+00    0.9     0.00080427       -42.9797007721  4.44E-03

 *** WARNING in fm/cp_fm_elpa.F:522 :: Setting real_kernel for ELPA failed ***

    15 Broy./Diag. 0.10E+00    0.9     0.00055133       -42.9769430801  2.76E-03

 *** WARNING in fm/cp_fm_elpa.F:522 :: Setting real_kernel for ELPA failed ***

    16 Broy./Diag. 0.10E+00    0.9     0.00115802       -42.9757045173  1.24E-03

 *** WARNING in fm/cp_fm_elpa.F:522 :: Setting real_kernel for ELPA failed ***

    17 Broy./Diag. 0.10E+00    0.8     0.00009109       -42.9739457359  1.76E-03

 *** WARNING in fm/cp_fm_elpa.F:522 :: Setting real_kernel for ELPA failed ***

    18 Broy./Diag. 0.10E+00    0.8     0.00058929       -42.9756955136 -1.75E-03

 *** WARNING in fm/cp_fm_elpa.F:522 :: Setting real_kernel for ELPA failed ***

    19 Broy./Diag. 0.10E+00    0.8     0.00037089       -42.9759617023 -2.66E-04

 *** WARNING in fm/cp_fm_elpa.F:522 :: Setting real_kernel for ELPA failed ***

    20 Broy./Diag. 0.10E+00    0.9     0.00032976       -42.9747254141  1.24E-03

 *** WARNING in fm/cp_fm_elpa.F:522 :: Setting real_kernel for ELPA failed ***

    21 Broy./Diag. 0.10E+00    0.9     0.00049977       -42.9731933482  1.53E-03

 *** WARNING in fm/cp_fm_elpa.F:522 :: Setting real_kernel for ELPA failed ***

    22 Broy./Diag. 0.10E+00    0.8     0.00012570       -42.9722326696  9.61E-04

 *** WARNING in fm/cp_fm_elpa.F:522 :: Setting real_kernel for ELPA failed ***

    23 Broy./Diag. 0.10E+00    0.8     0.00024653       -42.9719513714  2.81E-04

 *** WARNING in fm/cp_fm_elpa.F:522 :: Setting real_kernel for ELPA failed ***

    24 Broy./Diag. 0.10E+00    0.8     0.00005985       -42.9716102840  3.41E-04

 *** WARNING in fm/cp_fm_elpa.F:522 :: Setting real_kernel for ELPA failed ***

    25 Broy./Diag. 0.10E+00    0.8     0.00007459       -42.9713257192  2.85E-04

 *** WARNING in fm/cp_fm_elpa.F:522 :: Setting real_kernel for ELPA failed ***

    26 Broy./Diag. 0.10E+00    0.8     0.00006173       -42.9709583209  3.67E-04

 *** WARNING in fm/cp_fm_elpa.F:522 :: Setting real_kernel for ELPA failed ***

    27 Broy./Diag. 0.10E+00    0.9     0.00004058       -42.9708398985  1.18E-04

 *** WARNING in fm/cp_fm_elpa.F:522 :: Setting real_kernel for ELPA failed ***

    28 Broy./Diag. 0.10E+00    0.9     0.00006691       -42.9708250394  1.49E-05

 *** WARNING in fm/cp_fm_elpa.F:522 :: Setting real_kernel for ELPA failed ***

    29 Broy./Diag. 0.10E+00    0.8     0.00002087       -42.9709071109 -8.21E-05

 *** WARNING in fm/cp_fm_elpa.F:522 :: Setting real_kernel for ELPA failed ***

    30 Broy./Diag. 0.10E+00    0.8     0.00003211       -42.9712213712 -3.14E-04

 *** WARNING in fm/cp_fm_elpa.F:522 :: Setting real_kernel for ELPA failed ***

    31 Broy./Diag. 0.10E+00    0.8     0.00004452       -42.9713189211 -9.75E-05

 *** WARNING in fm/cp_fm_elpa.F:522 :: Setting real_kernel for ELPA failed ***

    32 Broy./Diag. 0.10E+00    0.8     0.00001254       -42.9712773922  4.15E-05

 *** WARNING in fm/cp_fm_elpa.F:522 :: Setting real_kernel for ELPA failed ***

    33 Broy./Diag. 0.10E+00    0.8     0.00005927       -42.9710688296  2.09E-04

 *** WARNING in fm/cp_fm_elpa.F:522 :: Setting real_kernel for ELPA failed ***

    34 Broy./Diag. 0.10E+00    0.8     0.00000929       -42.9709456296  1.23E-04

 *** WARNING in fm/cp_fm_elpa.F:522 :: Setting real_kernel for ELPA failed ***

    35 Broy./Diag. 0.10E+00    0.8     0.00003157       -42.9708722439  7.34E-05

 *** WARNING in fm/cp_fm_elpa.F:522 :: Setting real_kernel for ELPA failed ***

    36 Broy./Diag. 0.10E+00    0.9     0.00000640       -42.9708096264  6.26E-05

 *** WARNING in fm/cp_fm_elpa.F:522 :: Setting real_kernel for ELPA failed ***

    37 Broy./Diag. 0.10E+00    0.9     0.00002877       -42.9708136508 -4.02E-06

 *** WARNING in fm/cp_fm_elpa.F:522 :: Setting real_kernel for ELPA failed ***

    38 Broy./Diag. 0.10E+00    0.8     0.00000349       -42.9707841250  2.95E-05

 *** WARNING in fm/cp_fm_elpa.F:522 :: Setting real_kernel for ELPA failed ***

    39 Broy./Diag. 0.10E+00    0.8     0.00001763       -42.9707603529  2.38E-05

 *** WARNING in fm/cp_fm_elpa.F:522 :: Setting real_kernel for ELPA failed ***

    40 Broy./Diag. 0.10E+00    0.8     0.00000126       -42.9707307384  2.96E-05

 *** WARNING in fm/cp_fm_elpa.F:522 :: Setting real_kernel for ELPA failed ***

    41 Broy./Diag. 0.10E+00    0.8     0.00000585       -42.9707092197  2.15E-05

 *** WARNING in fm/cp_fm_elpa.F:522 :: Setting real_kernel for ELPA failed ***

    42 Broy./Diag. 0.10E+00    0.8     0.00000239       -42.9706810964  2.81E-05

 *** WARNING in fm/cp_fm_elpa.F:522 :: Setting real_kernel for ELPA failed ***

    43 Broy./Diag. 0.10E+00    0.8     0.00000345       -42.9706897320 -8.64E-06

 *** WARNING in fm/cp_fm_elpa.F:522 :: Setting real_kernel for ELPA failed ***

    44 Broy./Diag. 0.10E+00    0.8     0.00000224       -42.9706958784 -6.15E-06

 *** WARNING in fm/cp_fm_elpa.F:522 :: Setting real_kernel for ELPA failed ***

    45 Broy./Diag. 0.10E+00    0.8     0.00000131       -42.9706967598 -8.81E-07

 *** WARNING in fm/cp_fm_elpa.F:522 :: Setting real_kernel for ELPA failed ***

    46 Broy./Diag. 0.10E+00    0.8     0.00000242       -42.9706917215  5.04E-06

 *** WARNING in fm/cp_fm_elpa.F:522 :: Setting real_kernel for ELPA failed ***

    47 Broy./Diag. 0.10E+00    0.9     0.00000067       -42.9706895921  2.13E-06

  *** SCF run converged in    47 steps ***


  Electronic density on regular grids:        -25.9999999983        0.0000000017
  Core density on regular grids:               25.9999999985       -0.0000000015
  Total charge density on r-space grids:        0.0000000003
  Total charge density g-space grids:           0.0000000003

  Overlap energy of the core charge distribution:               0.00000097299866
  Self energy of the core charge distribution:               -105.45329424937479
  Core Hamiltonian energy:                                     31.59997954129460
  Hartree energy:                                              42.97113520626503
  Exchange-correlation energy:                                -12.08729184192317
  Dispersion energy:                                           -0.00121922133623
  Electronic entropic energy:                                  -0.00000000000003
  Fermi energy:                                                -0.14174166243305

  Total energy:                                               -42.97068959207592

  outer SCF iter =    1 RMS gradient =   0.67E-06 energy =        -42.9706895921
  outer SCF loop converged in   1 iterations or   47 steps


 MO| EIGENVALUES AND OCCUPATION NUMBERS
 MO|
 MO|  Index      Eigenvalue [a.u.]        Eigenvalue [eV]             Occupation
 MO|      1              -0.991163             -26.970926               2.000000
 MO|      2              -0.819871             -22.309834               2.000000
 MO|      3              -0.759634             -20.670692               2.000000
 MO|      4              -0.585407             -15.929726               2.000000
 MO|      5              -0.565418             -15.385815               2.000000
 MO|      6              -0.513288             -13.967273               2.000000
 MO|      7              -0.429558             -11.688867               2.000000
 MO|      8              -0.411212             -11.189655               2.000000
 MO|      9              -0.383618             -10.438765               2.000000
 MO|     10              -0.289358              -7.873818               2.000000
 MO|     11              -0.272825              -7.423935               2.000000
 MO|     12              -0.245995              -6.693877               2.000000
 MO|     13              -0.237846              -6.472120               2.000000
 MO|     14              -0.045914              -1.249394               0.000000
 MO|     15               0.001647               0.044804               0.000000
 MO|     16               0.045682               1.243066               0.000000
 MO|     17               0.105328               2.866110               0.000000
 MO|     18               0.129218               3.516192               0.000000
 MO|     19               0.148469               4.040054               0.000000
 MO|     20               0.161116               4.384195               0.000000
 MO|     21               0.247015               6.721622               0.000000
 MO|     22               0.251550               6.845027               0.000000
 MO|     23               0.273718               7.448239               0.000000
 MO|     24               0.284661               7.746033               0.000000
 MO|     25               0.328653               8.943099               0.000000
 MO|     26               0.363878               9.901627               0.000000
 MO|     27               0.394312              10.729776               0.000000
 MO|     28               0.396735              10.795713               0.000000
 MO|     29               0.417404              11.358152               0.000000
 MO|     30               0.423573              11.526010               0.000000
 MO|     31               0.456589              12.424426               0.000000
 MO|     32               0.502245              13.666792               0.000000
 MO|     33               0.533316              14.512261               0.000000
 MO|     34               0.574123              15.622683               0.000000
 MO|     35               0.602679              16.399720               0.000000
 MO|     36               0.650716              17.706886               0.000000
 MO|     37               0.723725              19.693552               0.000000
 MO|     38               0.887096              24.139111               0.000000
 MO|     39               0.907920              24.705751               0.000000
 MO|     40               0.934694              25.434330               0.000000
 MO|     41               0.978605              26.629200               0.000000
 MO|     42               0.992822              27.016049               0.000000
 MO|     43               1.017221              27.679998               0.000000
 MO|     44               1.103684              30.032766               0.000000
 MO|     45               1.126063              30.641721               0.000000
 MO|     46               1.180431              32.121163               0.000000
 MO|     47               1.234272              33.586254               0.000000
 MO|     48               1.292158              35.161417               0.000000
 MO|     49               1.317850              35.860510               0.000000
 MO|     50               1.398650              38.059209               0.000000
 MO|     51               1.435151              39.052452               0.000000
 MO|     52               1.500185              40.822105               0.000000
 MO|     53               1.521764              41.409305               0.000000
 MO|     54               1.558641              42.412783               0.000000
 MO|     55               1.647032              44.818023               0.000000
 MO|     56               1.730930              47.101011               0.000000
 MO|     57               1.762874              47.970254               0.000000
 MO|     58               1.824878              49.657459               0.000000
 MO|     59               1.848199              50.292065               0.000000
 MO|     60               1.882787              51.233252               0.000000
 MO|     61               1.908476              51.932285               0.000000
 MO|     62               1.926591              52.425213               0.000000
 MO|     63               1.967506              53.538559               0.000000
 MO|     64               2.007995              54.640319               0.000000
 MO|     65               2.104331              57.261772               0.000000
 MO|     66               2.166648              58.957502               0.000000
 MO|     67               2.242340              61.017171               0.000000
 MO|     68               2.248483              61.184327               0.000000
 MO|     69               2.292528              62.382849               0.000000
 MO|     70               2.386170              64.930977               0.000000
 MO|     71               2.403444              65.401037               0.000000
 MO|     72               2.497334              67.955919               0.000000
 MO|     73               2.642499              71.906068               0.000000
 MO|     74               2.888123              78.589837               0.000000
 MO|     75               3.021635              82.222859               0.000000
 MO|     76               3.111691              84.673414               0.000000
 MO|     77               3.584375              97.535806               0.000000
 MO|     78               4.385234             119.328295               0.000000
 MO|     79               7.615420             207.226128               0.000000
 MO|     80               8.006888             217.878505               0.000000
 MO| Sum:                                                              26.000000
 MO| E(Fermi):           -0.141742 a.u.         -3.856987 eV


 !-----------------------------------------------------------------------------!
                     Mulliken Population Analysis

 #  Atom  Element  Kind  Atomic population                           Net charge
       1     C        1          3.954175                              0.045825
       2     N        2          5.210642                             -0.210642
       3     C        1          3.946507                              0.053493
       4     N        2          5.188224                             -0.188224
       5     N        2          4.923115                              0.076885
       6     H        3          0.945815                              0.054185
       7     H        3          0.954493                              0.045507
       8     H        3          0.877029                              0.122971
 # Total charge                             26.000000                  0.000000

 !-----------------------------------------------------------------------------!

 !-----------------------------------------------------------------------------!
                           Hirshfeld Charges

  #Atom  Element  Kind  Ref Charge     Population                    Net charge
      1       C      1       4.000          4.196                        -0.196
      2       N      2       5.000          5.362                        -0.362
      3       C      1       4.000          4.192                        -0.192
      4       N      2       5.000          5.266                        -0.266
      5       N      2       5.000          5.416                        -0.416
      6       H      3       1.000          0.535                         0.465
      7       H      3       1.000          0.539                         0.461
      8       H      3       1.000          0.469                         0.531

  Total Charge                                                            0.024
 !-----------------------------------------------------------------------------!

 ENERGY| Total FORCE_EVAL ( QS ) energy [a.u.]:              -42.970689592075921

 -------------------------------------------------------------------------------
 -                                                                             -
 -                                DBCSR STATISTICS                             -
 -                                                                             -
 -------------------------------------------------------------------------------
 COUNTER                                    TOTAL       BLAS       SMM       ACC
 flops     5 x     5 x    16               225600       0.0%    100.0%      0.0%     
 flops    13 x     5 x    16               684320       0.0%    100.0%      0.0%     
 flops     5 x    13 x    16               782080       0.0%    100.0%      0.0%     
 flops     5 x     5 x    32               902400       0.0%    100.0%      0.0%     
 flops    13 x     5 x    32              2737280       0.0%    100.0%      0.0%     
 flops     5 x    13 x    32              3128320       0.0%    100.0%      0.0%     
 flops    13 x    13 x    16              3812640       0.0%    100.0%      0.0%     
 flops    13 x    13 x    32             15250560       0.0%    100.0%      0.0%     
 flops inhomo. stacks                           0       0.0%      0.0%      0.0%
 flops total                        27.523200E+06       0.0%    100.0%      0.0%
 flops max/rank                      2.541760E+06       0.0%    100.0%      0.0%
 matmuls inhomo. stacks                         0       0.0%      0.0%      0.0%
 matmuls total                               5076       0.0%    100.0%      0.0%
 number of processed stacks                  4653       0.0%    100.0%      0.0%
 average stack size                                     0.0       1.1       0.0
 marketing flops                     7.820801E+06
 -------------------------------------------------------------------------------
 # multiplications                             47
 max memory usage/rank             736.550912E+06
 # max total images/rank                        3
 # max 3D layers                                1
 # MPI messages exchanged                   45120
 MPI messages size (bytes):
  total size                        33.689600E+06
  min size                           0.000000E+00
  max size                           6.656000E+03
  average size                     746.666687E+00
 MPI breakdown and total messages size (bytes):
             size <=      128               35532                        0
       128 < size <=     8192                9588                 33689600
      8192 < size <=    32768                   0                        0
     32768 < size <=   131072                   0                        0
    131072 < size <=  4194304                   0                        0
   4194304 < size <= 16777216                   0                        0
  16777216 < size                               0                        0
 -------------------------------------------------------------------------------

 *** WARNING in dbcsr_mm.F:301 :: Using a non-square number of MPI ranks ***
 *** might lead to poor performance. Used ranks: 48 Suggested: 49 100    ***

 -------------------------------------------------------------------------------
 -                                                                             -
 -                      DBCSR MESSAGE PASSING PERFORMANCE                      -
 -                                                                             -
 -------------------------------------------------------------------------------
 ROUTINE             CALLS      AVE VOLUME [Bytes]
 MP_Bcast                9                     12.
 MP_Allreduce          364                     10.
 MP_Alltoall          1328                   6469.
 MP_ISend             2162                    674.
 MP_IRecv             2256                    368.
 -------------------------------------------------------------------------------

 -------------------------------------------------------------------------------
 -                                                                             -
 -                                DBM STATISTICS                               -
 -                                                                             -
 -------------------------------------------------------------------------------
    M  x    N  x    K                                          COUNT     PERCENT
 -------------------------------------------------------------------------------

 -------------------------------------------------------------------------------
 -                                                                             -
 -                                GRID STATISTICS                              -
 -                                                                             -
 -------------------------------------------------------------------------------
 LP    KERNEL             BACKEND                              COUNT     PERCENT
 3     collocate general  CPU                                  70320      21.39%
 3     integrate general  CPU                                  68855      20.94%
 4     collocate general  CPU                                  64128      19.50%
 4     integrate general  CPU                                  62792      19.10%
 2     collocate general  CPU                                  31104       9.46%
 2     integrate general  CPU                                  30456       9.26%
 0     collocate general  CPU                                    768       0.23%
 0     integrate general  CPU                                    384       0.12%
 -------------------------------------------------------------------------------

 MEMORY| Estimated peak process memory [MiB]                                 703

 -------------------------------------------------------------------------------
 ----                             MULTIGRID INFO                            ----
 -------------------------------------------------------------------------------
 count for grid        1:         932257          cutoff [a.u.]          250.00
 count for grid        2:         469036          cutoff [a.u.]           83.33
 count for grid        3:         294768          cutoff [a.u.]           27.78
 count for grid        4:         250671          cutoff [a.u.]            9.26
 count for grid        5:          66000          cutoff [a.u.]            3.09
 total gridlevel count  :        2012732

 -------------------------------------------------------------------------------
 -                                                                             -
 -                         MESSAGE PASSING PERFORMANCE                         -
 -                                                                             -
 -------------------------------------------------------------------------------

 ROUTINE             CALLS      AVE VOLUME [Bytes]
 MP_Group                5
 MP_Bcast              237                2377276.
 MP_Allreduce         1145                   1407.
 MP_Sync                52
 MP_Alltoall          1249                7083612.
 MP_SendRecv          6768                  59040.
 MP_ISendRecv         6627                  59040.
 MP_Wait             19255
 MP_comm_split          47
 MP_ISend            11378                 206208.
 MP_IRecv            11378                 206128.
 -------------------------------------------------------------------------------


 -------------------------------------------------------------------------------
 -                                                                             -
 -                           R E F E R E N C E S                               -
 -                                                                             -
 -------------------------------------------------------------------------------
 
 CP2K version 2024.3, the CP2K developers group (2024).
 CP2K is freely available from https://www.cp2k.org/ .
 
 T. D. Kuehne, M. Iannuzzi, M. Del Ben, V. V. Rybkin, P. Seewald, F. Stein, T. 
 Laino, R. Z. Khaliullin, O. Schuett, F. Schiffmann, D. Golze, J. Wilhelm, S. 
 Chulkov, M. H. Bani-Hashemian, V. Weber, U. Borstnik, M. Taillefumier, A. S. 
 Jakobovits, A. Lazzaro, H. Pabst, T. Mueller, R. Schade, M. Guidon, S. 
 Andermatt, N. Holmberg, G. K. Schenter, A. Hehn, A. Bussy, F. Belleflamme, G. 
 Tabacchi, A. Gloess, M. Lass, I. Bethune, C. J. Mundy, C. Plessl, M. Watkins, 
 J. VandeVondele, M. Krack, J. Hutter.
 J. Chem. Phys. 152, 194103 (2020).
 CP2K: An electronic structure and molecular dynamics software package - 
 Quickstep: Efficient and accurate electronic structure calculations.
 https://doi.org/10.1063/5.0007045

 L. Goerigk, A. Hansen, C. Bauer, S. Ehrlich, A. Najibi, S. Grimme.
 Phys. Chem. Chem. Phys. 19, 32184-32215 (2017).
 A look at the density functional theory zoo with the advanced GMTKN55 database 
 for general main group thermochemistry, kinetics and noncovalent interactions.
 https://doi.org/10.1039/C7CP04913G

 O. Schuett, P. Messmer, J. Hutter, J. VandeVondele.
 Electronic Structure Calculations on Graphics Processing Units, 173-190 (2016).
 GPU-Accelerated Sparse Matrix-Matrix Multiplication for Linear Scaling Density 
 Functional Theory.
 https://doi.org/10.1002/9781118670712.ch8

 A. Heinecke, G. Henry, M. Hutchinson, H. Pabst.
 Proceedings of Intl. Supercomputing Conference, 981-991 (2016).
 LIBXSMM: Accelerating Small Matrix Multiplications by Runtime Code Generation.
 https://doi.org/10.1109/SC.2016.83

 J. Hutter, M. Iannuzzi, F. Schiffmann, J. VandeVondele.
 WIREs Comput Mol Sci. 4, 15-25 (2014).
 CP2K: atomistic simulations of condensed matter systems.
 https://doi.org/10.1002/wcms.1159

 U. Borstnik, J. VandeVondele, V. Weber, J. Hutter.
 Parallel Comput. 40, 47-58 (2014).
 Sparse matrix multiplication: The distributed block-compressed sparse row 
 library.
 https://doi.org/10.1016/j.parco.2014.03.012

 A. Marek, V. Blum, R. Johanni, V. Havu, B. Lang, T. Auckenthaler, A. Heinecke, 
 H. Bungartz, H. Lederer.
 J. Phys. Condens. Matter 26, 213201 (2014).
 The ELPA library: scalable parallel eigenvalue solutions for electronic 
 structure theory and computational science.
 https://doi.org/10.1088/0953-8984/26/21/213201

 S. Grimme, S. Ehrlich, L. Goerigk.
 J. Comput. Chem. 32, 1456 (2011).
 Effect of the damping function in dispersion corrected density functional 
 theory.
 https://doi.org/10.1002/jcc.21759

 S. Grimme, J. Antony, S. Ehrlich, H. Krieg.
 J. Chem. Phys. 132, 154104 (2010).
 A consistent and accurate ab initio parametrization of density functional 
 dispersion correction (DFT-D) for the 94 elements H-Pu.
 https://doi.org/10.1063/1.3382344

 J. VandeVondele, J. Hutter.
 J. Chem. Phys. 127, 114105 (2007).
 Gaussian basis sets for accurate calculations on molecular systems in gas and 
 condensed phases.
 https://doi.org/10.1063/1.2770708

 J. VandeVondele, M. Krack, F. Mohamed, M. Parrinello, T. Chassaing, J. Hutter.
 Comput. Phys. Commun. 167, 103-128 (2005).
 QUICKSTEP: Fast and accurate density functional calculations using a mixed 
 Gaussian and plane waves approach.
 https://doi.org/10.1016/j.cpc.2004.12.014

 M. Krack.
 Theor. Chem. Acc. 114, 145-152 (2005).
 Pseudopotentials for H to Kr optimized for gradient-corrected 
 exchange-correlation functionals.
 https://doi.org/10.1007/s00214-005-0655-y

 M. Frigo, S. G. Johnson.
 Proc. IEEE 93, 216-231 (2005).
 The design and implementation of FFTW3.
 https://doi.org/10.1109/JPROC.2004.840301

 C. Hartwigsen, S. Goedecker, J. Hutter.
 Phys. Rev. B 58, 3641-3662 (1998).
 Relativistic separable dual-space Gaussian pseudopotentials from H to Rn.
 https://doi.org/10.1103/PhysRevB.58.3641

 G. Lippert, J. Hutter, M. Parrinello.
 Mol. Phys. 92, 477-487 (1997).
 A hybrid Gaussian and plane wave density functional scheme.
 https://doi.org/10.1080/002689797170220

 S. Goedecker, M. Teter, J. Hutter.
 Phys. Rev. B 54, 1703-1710 (1996).
 Separable dual-space Gaussian pseudopotentials.
 https://doi.org/10.1103/PhysRevB.54.1703

 J. P. Perdew, K. Burke, M. Ernzerhof.
 Phys. Rev. Lett. 77, 3865-3868 (1996).
 Generalized gradient approximation made simple.
 https://doi.org/10.1103/PhysRevLett.77.3865


 -------------------------------------------------------------------------------
 -                                                                             -
 -                                T I M I N G                                  -
 -                                                                             -
 -------------------------------------------------------------------------------
 SUBROUTINE                       CALLS  ASD         SELF TIME        TOTAL TIME
                                MAXIMUM       AVERAGE  MAXIMUM  AVERAGE  MAXIMUM
 CP2K                                 1  1.0    0.011    0.015   40.672   40.672
 qs_energies                          1  2.0    0.000    0.000   40.432   40.432
 scf_env_do_scf                       1  3.0    0.000    0.000   39.959   39.960
 scf_env_do_scf_inner_loop           47  4.0    0.001    0.003   39.959   39.960
 qs_ks_update_qs_env                 47  5.0    0.000    0.001   24.359   25.358
 rebuild_ks_matrix                   47  6.0    0.000    0.000   24.348   25.346
 qs_ks_build_kohn_sham_matrix        47  7.0    0.007    0.011   24.348   25.346
 fft_wrap_pw1pw2                    946 10.0    0.014    0.016   18.666   19.119
 fft_wrap_pw1pw2_250                566 11.3    0.545    0.600   17.749   18.294
 fft3d_ps                           946 12.0    6.735    8.514   14.455   15.233
 qs_vxc_create                       47  8.0    0.001    0.002   13.924   14.074
 xc_vxc_pw_create                    47  9.0    0.106    0.139   13.923   14.073
 xc_pw_derive                       282 11.0    0.003    0.007   10.239   10.680
 qs_rho_update_rho_low               48  5.0    0.000    0.000    8.796    8.796
 calculate_rho_elec                  48  6.0    0.048    0.057    8.796    8.796
 sum_up_and_integrate                47  8.0    0.001    0.001    7.365    8.364
 integrate_v_rspace                  47  9.0    0.001    0.001    7.314    8.320
 mp_alltoall_z22v                   946 14.0    6.256    7.833    6.256    7.833
 density_rs2pw                       48  7.0    0.002    0.002    7.209    7.627
 xc_pw_divergence                    47 10.0    0.001    0.002    6.819    7.068
 xc_rho_set_and_dset_create          47 10.0    0.103    0.139    6.642    6.943
 gspace_mixing                       46  5.0    0.046    0.055    5.645    5.647
 potential_pw2rs                     47 10.0    0.004    0.005    5.382    5.391
 mp_waitany                       11378 11.4    4.341    5.137    4.341    5.137
 x_to_yz                            423 13.1    0.798    1.048    4.184    4.832
 yz_to_x                            333 13.1    0.604    0.825    3.463    4.318
 transfer_rs2pw                     242  8.0    0.003    0.004    3.870    4.246
 broyden_mixing                      46  6.0    3.296    3.551    3.873    3.948
 transfer_pw2rs                     236 11.0    0.002    0.003    3.418    3.420
 grid_collocate_task_list            48  7.0    1.296    3.374    1.296    3.374
 qs_scf_new_mos                      47  5.0    0.000    0.001    1.366    3.296
 transfer_rs2pw_250                  50  8.9    0.381    0.556    2.866    3.235
 copy_dbcsr_to_fm                    48  6.0    0.001    0.001    1.031    2.961
 mp_alltoall_i22                    190  9.0    1.018    2.951    1.018    2.951
 dbcsr_desymmetrize_deep             48  7.0    0.001    0.004    1.011    2.941
 grid_integrate_task_list            47 10.0    0.309    2.926    0.309    2.926
 mp_alltoall_d11v                   665  9.3    1.626    2.750    1.626    2.750
 rs_gather_matrices                  47 10.0    0.000    0.001    1.622    2.747
 transfer_pw2rs_250                  48 11.9    0.575    0.768    2.110    2.225
 pw_gather_p                        429 11.6    1.373    1.894    1.373    1.894
 pw_scatter_p                       517 12.3    1.683    1.782    1.683    1.782
 xc_functional_eval                  47 11.0    0.000    0.001    1.458    1.759
 pbe_lda_eval                        47 12.0    1.457    1.759    1.457    1.759
 mp_sum_d                           885  4.7    1.204    1.582    1.204    1.582
 pw_derive                          423 11.3    1.441    1.529    1.441    1.529
 pw_poisson_solve                    47  8.0    0.001    0.001    1.334    1.386
 pw_copy                            752 10.6    0.860    1.048    0.860    1.048
 pw_poisson_set                      48  8.9    0.001    0.001    0.806    0.857
 fft_wrap_pw1pw2_90                  95 10.5    0.013    0.019    0.695    0.855
 -------------------------------------------------------------------------------

 The number of warnings for this run is : 49
 
 -------------------------------------------------------------------------------
  **** **** ******  **  PROGRAM ENDED AT                 2024-11-01 23:32:09.271
 ***** ** ***  *** **   PROGRAM RAN ON                              3c286c8eca61
 **    ****   ******    PROGRAM RAN BY                                 <unknown>
 ***** **    ** ** **   PROGRAM PROCESS ID                                   587
  **** **  *******  **  PROGRAM STOPPED IN                                  /mnt
