&FCI NORB=   5,NELEC=   2,MS2= 1,
  ORBSYM=1,1,1,1,1,
  ISYM=0,
 /
 7.9461823824700989E-02   1   1   1   1
-5.0410073980583893E-05   1   1   1   2
 2.2261112174509540E-04   1   1   1   3
 7.2875494007887073E-04   1   1   1   4
-4.6847599030304501E-04   1   1   1   5
 7.5822078670683496E-02   1   1   2   2
-2.3441971148512215E-05   1   1   2   3
-8.0657534720630214E-04   1   1   2   4
 8.9302709434612034E-04   1   1   2   5
 7.4728623517898385E-02   1   1   3   3
 8.8477903514602480E-04   1   1   3   4
 5.6444024093093735E-04   1   1   3   5
 6.9976667042534482E-02   1   1   4   4
 5.6970471208627382E-04   1   1   4   5
 7.0668563397298559E-02   1   1   5   5
 1.5518274521060099E-03   1   2   1   2
 4.6283359559586603E-05   1   2   1   3
-5.3967114716754617E-05   1   2   1   4
 1.0490819423210855E-04   1   2   1   5
-2.6262971058962827E-05   1   2   2   2
-1.4371935932427601E-04   1   2   2   3
-1.4951709712487907E-05   1   2   2   4
-2.2969068386869865E-04   1   2   2   5
 4.6869967975894604E-05   1   2   3   3
-1.1835844775244972E-04   1   2   3   4
-1.5754005695198133E-05   1   2   3   5
 1.3417146587702374E-04   1   2   4   4
 2.0988325171286127E-05   1   2   4   5
 1.1381816961866065E-05   1   2   5   5
 1.5284888586458601E-03   1   3   1   3
 3.3285514952835135E-04   1   3   1   4
-3.2425582444006084E-04   1   3   1   5
 4.6286431258075512E-04   1   3   2   2
-1.1199513029837699E-04   1   3   2   3
-2.5300872207908488E-04   1   3   2   4
 1.6039231469192254E-04   1   3   2   5
-1.1435445601568905E-04   1   3   3   3
 3.9733588909176681E-04   1   3   3   4
 3.4156115689037332E-05   1   3   3   5
-9.0354173030065952E-05   1   3   4   4
-7.6880993373475568E-05   1   3   4   5
 3.4572651255340489E-05   1   3   5   5
 1.4750600099256803E-03   1   4   1   4
-1.3229357901596841E-04   1   4   1   5
 9.7405560860938743E-04   1   4   2   2
-9.5205792685691643E-05   1   4   2   3
-8.6920710279588009E-05   1   4   2   4
 3.7094024729360920E-04   1   4   2   5
 1.6571201719870805E-04   1   4   3   3
 6.5479079106358100E-04   1   4   3   4
 7.6129772055448817E-05   1   4   3   5
-1.4458550552259891E-04   1   4   4   4
 1.3449812358080999E-04   1   4   4   5
 2.8659033560558887E-04   1   4   5   5
 1.5070118365815253E-03   1   5   1   5
-6.9578817159515272E-04   1   5   2   2
 1.7978878454667847E-04   1   5   2   3
 4.2261805303885823E-04   1   5   2   4
-2.6309389923420451E-04   1   5   2   5
 3.3472893354962716E-07   1   5   3   3
-3.6237399478179587E-04   1   5   3   4
-4.0055796001087671E-05   1   5   3   5
 1.4463188392245077E-04   1   5   4   4
-3.0978994061214359E-06   1   5   4   5
-1.3870942721928658E-04   1   5   5   5
 7.8804656668717610E-02   2   2   2   2
-1.5438281878136281E-04   2   2   2   3
-8.0385276857086805E-04   2   2   2   4
 9.7502249003642320E-04   2   2   2   5
 7.4856951744089961E-02   2   2   3   3
 1.0443935843455596E-03   2   2   3   4
 4.4438106164516151E-04   2   2   3   5
 7.0073354484430125E-02   2   2   4   4
 3.8020721091364048E-04   2   2   4   5
 7.0882878589019579E-02   2   2   5   5
 1.4545495739855625E-03   2   3   2   3
 5.4699048747287131E-05   2   3   2   4
 1.0512006459251811E-04   2   3   2   5
 5.7227909976287220E-05   2   3   3   3
-3.2507769960687289E-05   2   3   3   4
 7.0013809692540509E-05   2   3   3   5
 1.1685303242438291E-04   2   3   4   4
 5.8928194687568518E-05   2   3   4   5
 1.1121819332813512E-04   2   3   5   5
 1.3954477076076684E-03   2   4   2   4
-5.1235740626513293E-04   2   4   2   5
-3.6318335998760786E-04   2   4   3   3
-2.6787150369773953E-04   2   4   3   4
-5.2919418864066091E-05   2   4   3   5
-1.1829383493819167E-04   2   4   4   4
-4.9663792828225192E-05   2   4   4   5
-2.1421739968263578E-04   2   4   5   5
 1.8609461109697287E-03   2   5   2   5
 1.8301963387923255E-04   2   5   3   3
 3.4143092897604620E-04   2   5   3   4
 3.1323769906370597E-04   2   5   3   5
-1.0249119454511331E-04   2   5   4   4
 2.1016252373333156E-04   2   5   4   5
 3.8940070483618381E-04   2   5   5   5
 7.7473319885152228E-02   3   3   3   3
 1.2987526461956194E-04   3   3   3   4
 2.5694942979347232E-04   3   3   3   5
 7.0229312236325947E-02   3   3   4   4
 4.3006855651213556E-04   3   3   4   5
 7.0101034566755038E-02   3   3   5   5
 1.7540352386967090E-03   3   4   3   4
 3.1299265746514656E-04   3   4   3   5
 2.8395084356095475E-05   3   4   4   4
 1.3419899693020091E-04   3   4   4   5
 5.9168902408137075E-04   3   4   5   5
 1.2794072790627015E-03   3   5   3   5
-5.2302853322106296E-05   3   5   4   4
 1.5235435174484159E-04   3   5   4   5
 1.6981134149246429E-04   3   5   5   5
 6.9913798528553631E-02   4   4   4   4
 5.9201055389816249E-04   4   4   4   5
 6.7227341342478930E-02   4   4   5   5
 1.2623692506523064E-03   4   5   4   5
 5.7603955432197708E-04   4   5   5   5
 7.0351725318377439E-02   5   5   5   5
-8.1655801429353997E-02   1   1   0   0
-3.1835658024423967E-05   1   2   0   0
-8.4439297663108158E-04   1   3   0   0
-1.1748408752313561E-03   1   4   0   0
 9.3116553400298405E-04   1   5   0   0
-1.5543490956061989E-01   2   2   0   0
 9.8570465639307521E-05   2   3   0   0
 2.0200356497000844E-03   2   4   0   0
-1.7965279394483579E-03   2   5   0   0
-1.5288450320779579E-01   3   3   0   0
-1.7411831444663363E-03   3   4   0   0
-1.7153520811202701E-03   3   5   0   0
-1.3020694147508871E-01   4   4   0   0
-1.1214144063014010E-03   4   5   0   0
-1.3105121222919922E-01   5   5   0   0
-2.4132985685920281E+02   0   0   0   0
